  416

    1
0.0000000000e+00 0.0000000000e+00 0.0000000000e+00
0.0000000000e+00 0.0000000000e+00 0.0000000000e+00
     1      1      1
 1  1  1     1.4083638420e-08
 1  1  2    -8.5513570071e-01
 1  1  3     6.9520482972e-01
 1  2  1    -8.5513570071e-01
 1  2  2    -6.6507847194e-08
 1  2  3    -5.3467676035e-09
 1  3  1     6.9520482972e-01
 1  3  2    -5.3467676035e-09
 1  3  3     0.0000000000e+00
 2  1  1    -8.5513570071e-01
 2  1  2    -6.6507847194e-08
 2  1  3    -5.3467676035e-09
 2  2  1    -6.6507847194e-08
 2  2  2     9.0740243110e+00
 2  2  3     8.4360542485e-01
 2  3  1    -5.3467676035e-09
 2  3  2     8.4360542485e-01
 2  3  3    -3.4610181052e-01
 3  1  1     6.9520482972e-01
 3  1  2    -5.3467676035e-09
 3  1  3     0.0000000000e+00
 3  2  1    -5.3467676035e-09
 3  2  2     8.4360542485e-01
 3  2  3    -3.4610181052e-01
 3  3  1     0.0000000000e+00
 3  3  2    -3.4610181052e-01
 3  3  3     9.8872260254e-01

    2
0.0000000000e+00 0.0000000000e+00 0.0000000000e+00
0.0000000000e+00 0.0000000000e+00 0.0000000000e+00
     1      1      2
 1  1  1     3.3667947545e-02
 1  1  2     4.2118074015e-02
 1  1  3     7.4301332205e-02
 1  2  1     1.5144205017e-02
 1  2  2    -8.3242350366e-02
 1  2  3     1.1711690403e-01
 1  3  1     1.4539161938e-01
 1  3  2     8.3869016098e-02
 1  3  3    -1.4124161551e-02
 2  1  1     1.5144205017e-02
 2  1  2    -8.3242350366e-02
 2  1  3     1.1711690403e-01
 2  2  1     7.6813838319e-02
 2  2  2     3.3504139004e-03
 2  2  3     6.9321601230e-02
 2  3  1     1.7652779731e-01
 2  3  2     2.0003005152e-01
 2  3  3    -3.4391745606e-02
 3  1  1     1.4539161938e-01
 3  1  2     8.3869016098e-02
 3  1  3    -1.4124161551e-02
 3  2  1     1.7652779731e-01
 3  2  2     2.0003005152e-01
 3  2  3    -3.4391745606e-02
 3  3  1    -2.9054841742e-01
 3  3  2    -8.6329527985e-03
 3  3  3     1.3430644873e-02

    3
0.0000000000e+00 0.0000000000e+00 0.0000000000e+00
0.0000000000e+00 0.0000000000e+00 0.0000000000e+00
     1      1      8
 1  1  1    -3.2126044711e-09
 1  1  2     2.0467668377e-01
 1  1  3    -1.7257875033e-01
 1  2  1     1.8638226390e-01
 1  2  2     5.2443067126e-11
 1  2  3    -1.1812003665e-10
 1  3  1    -1.3833153881e-01
 1  3  2     5.6450047985e-11
 1  3  3    -3.6754488713e-10
 2  1  1     1.8638226390e-01
 2  1  2     5.2443067126e-11
 2  1  3    -1.1812003665e-10
 2  2  1     3.5402375862e-11
 2  2  2    -2.8284269131e-02
 2  2  3     1.5674563182e-02
 2  3  1    -4.0381365145e-11
 2  3  2     4.4911070613e-03
 2  3  3     6.2318809061e-03
 3  1  1    -1.3833153881e-01
 3  1  2     5.6450047985e-11
 3  1  3    -3.6754488713e-10
 3  2  1    -4.0381365145e-11
 3  2  2     4.4911070613e-03
 3  2  3     6.2318809061e-03
 3  3  1     3.6236307893e-11
 3  3  2    -5.1235740376e-02
 3  3  3     1.9675678943e-01

    4
0.0000000000e+00 0.0000000000e+00 0.0000000000e+00
4.3884552625e+00 -1.5927333000e-09 -1.2948540000e-09
     1      1      1
 1  1  1    -1.1747499979e-01
 1  1  2    -1.5321480637e-02
 1  1  3     2.9369733001e-02
 1  2  1    -8.1294952293e-03
 1  2  2     7.2322746072e-02
 1  2  3    -5.7666260355e-03
 1  3  1    -1.1310951118e-02
 1  3  2    -6.7613898766e-03
 1  3  3     7.6252111034e-03
 2  1  1    -8.1294952293e-03
 2  1  2     7.2322746072e-02
 2  1  3    -5.7666260355e-03
 2  2  1     1.0104209826e-01
 2  2  2    -6.6135421193e-03
 2  2  3     2.3877082590e-02
 2  3  1    -1.3664858107e-02
 2  3  2     3.3224347580e-03
 2  3  3    -1.6274277445e-03
 3  1  1    -1.1310951118e-02
 3  1  2    -6.7613898766e-03
 3  1  3     7.6252111034e-03
 3  2  1    -1.3664858107e-02
 3  2  2     3.3224347580e-03
 3  2  3    -1.6274277445e-03
 3  3  1     7.4930976651e-03
 3  3  2    -5.0079333463e-05
 3  3  3    -1.8416071060e-02

    5
0.0000000000e+00 0.0000000000e+00 0.0000000000e+00
-4.3884552625e+00 1.5927333000e-09 1.2948540000e-09
     1      1      1
 1  1  1     1.1747500021e-01
 1  1  2    -1.5321478695e-02
 1  1  3     2.9369732829e-02
 1  2  1    -8.1294928993e-03
 1  2  2    -7.2322745973e-02
 1  2  3     5.7666256819e-03
 1  3  1    -1.1310951418e-02
 1  3  2     6.7613898462e-03
 1  3  3    -7.6252110130e-03
 2  1  1    -8.1294928993e-03
 2  1  2    -7.2322745973e-02
 2  1  3     5.7666256819e-03
 2  2  1    -1.0104209825e-01
 2  2  2    -6.6135419409e-03
 2  2  3     2.3877082641e-02
 2  3  1     1.3664858079e-02
 2  3  2     3.3224347859e-03
 2  3  3    -1.6274277504e-03
 3  1  1    -1.1310951418e-02
 3  1  2     6.7613898462e-03
 3  1  3    -7.6252110130e-03
 3  2  1     1.3664858079e-02
 3  2  2     3.3224347859e-03
 3  2  3    -1.6274277504e-03
 3  3  1    -7.4930975735e-03
 3  3  2    -5.0079336004e-05
 3  3  3    -1.8416071046e-02

    6
0.0000000000e+00 0.0000000000e+00 0.0000000000e+00
-4.3884552625e+00 1.5927333000e-09 1.2948540000e-09
     1      1      2
 1  1  1    -3.3667950126e-02
 1  1  2     4.2118072348e-02
 1  1  3     7.4301335480e-02
 1  2  1     1.5144206186e-02
 1  2  2     8.3242349434e-02
 1  2  3    -1.1711690494e-01
 1  3  1     1.4539162187e-01
 1  3  2    -8.3869019074e-02
 1  3  3     1.4124161861e-02
 2  1  1     1.5144206186e-02
 2  1  2     8.3242349434e-02
 2  1  3    -1.1711690494e-01
 2  2  1    -7.6813838681e-02
 2  2  2     3.3504138354e-03
 2  2  3     6.9321601446e-02
 2  3  1    -1.7652780016e-01
 2  3  2     2.0003005166e-01
 2  3  3    -3.4391745443e-02
 3  1  1     1.4539162187e-01
 3  1  2    -8.3869019074e-02
 3  1  3     1.4124161861e-02
 3  2  1    -1.7652780016e-01
 3  2  2     2.0003005166e-01
 3  2  3    -3.4391745443e-02
 3  3  1     2.9054841732e-01
 3  3  2    -8.6329529104e-03
 3  3  3     1.3430644685e-02

    7
0.0000000000e+00 0.0000000000e+00 0.0000000000e+00
-1.9393189000e-09 -2.8605996489e+00 1.0702738109e+01
     1      1      3
 1  1  1     1.2064254922e-08
 1  1  2    -7.7629596706e-01
 1  1  3     6.4248062198e-01
 1  2  1    -6.9484157736e-01
 1  2  2     2.4631677262e-09
 1  2  3    -2.8962562143e-09
 1  3  1     5.1803752697e-01
 1  3  2    -1.8011854137e-10
 1  3  3     1.3752365595e-09
 2  1  1    -6.9484157736e-01
 2  1  2     2.4631677262e-09
 2  1  3    -2.8962562143e-09
 2  2  1     1.5452233977e-09
 2  2  2    -2.4120378221e-01
 2  2  3     3.3060893258e-01
 2  3  1     9.5688659992e-11
 2  3  2    -8.8991001939e-02
 2  3  3     2.2885740088e-01
 3  1  1     5.1803752697e-01
 3  1  2    -1.8011854137e-10
 3  1  3     1.3752365595e-09
 3  2  1     9.5688659992e-11
 3  2  2    -8.8991001939e-02
 3  2  3     2.2885740088e-01
 3  3  1    -1.3570126732e-10
 3  3  2     4.4374766374e-01
 3  3  3    -1.5981321914e+00

    8
0.0000000000e+00 0.0000000000e+00 0.0000000000e+00
-1.9393189000e-09 -2.8605996489e+00 1.0702738109e+01
     1      1      4
 1  1  1    -4.4189499959e+00
 1  1  2     5.4952852859e-01
 1  1  3    -6.5898149716e-01
 1  2  1     5.9751406047e-01
 1  2  2    -5.8321731592e+00
 1  2  3    -9.0414563178e-01
 1  3  1    -6.6814435094e-01
 1  3  2    -8.9817716220e-01
 1  3  3     5.9248780116e-01
 2  1  1     5.9751406047e-01
 2  1  2    -5.8321731592e+00
 2  1  3    -9.0414563178e-01
 2  2  1    -5.6417433179e+00
 2  2  2    -4.5009225538e+00
 2  2  3    -6.2514115642e-01
 2  3  1    -8.5981953036e-01
 2  3  2    -5.2470268318e-01
 2  3  3     9.3161037137e-02
 3  1  1    -6.6814435094e-01
 3  1  2    -8.9817716220e-01
 3  1  3     5.9248780116e-01
 3  2  1    -8.5981953036e-01
 3  2  2    -5.2470268318e-01
 3  2  3     9.3161037137e-02
 3  3  1     5.7447900172e-01
 3  3  2     5.9964517263e-02
 3  3  3     1.6807505609e-01

    9
0.0000000000e+00 0.0000000000e+00 0.0000000000e+00
-1.9393189000e-09 -2.8605996489e+00 1.0702738109e+01
     1      1      6
 1  1  1    -2.9925599102e-02
 1  1  2     1.3707154795e-01
 1  1  3    -2.7203257354e-02
 1  2  1     7.7268758949e-02
 1  2  2    -8.3881579358e-02
 1  2  3     2.7296021921e-02
 1  3  1    -3.4121090946e-03
 1  3  2    -1.0444394301e-02
 1  3  3    -7.4117021946e-02
 2  1  1     7.7268758949e-02
 2  1  2    -8.3881579358e-02
 2  1  3     2.7296021921e-02
 2  2  1    -7.7944676870e-02
 2  2  2     1.0179629966e-01
 2  2  3    -6.3030197831e-02
 2  3  1     3.0479578562e-02
 2  3  2    -5.8189252951e-02
 2  3  3    -1.7547014923e-03
 3  1  1    -3.4121090946e-03
 3  1  2    -1.0444394301e-02
 3  1  3    -7.4117021946e-02
 3  2  1     3.0479578562e-02
 3  2  2    -5.8189252951e-02
 3  2  3    -1.7547014923e-03
 3  3  1    -3.9275428607e-01
 3  3  2    -7.4624704520e-02
 3  3  3     4.3166338596e-02

   10
0.0000000000e+00 0.0000000000e+00 0.0000000000e+00
-4.3884552644e+00 -2.8605996473e+00 1.0702738110e+01
     1      1      4
 1  1  1     4.4189499791e+00
 1  1  2     5.4952834980e-01
 1  1  3    -6.5898152082e-01
 1  2  1     5.9751388456e-01
 1  2  2     5.8321732254e+00
 1  2  3     9.0414564052e-01
 1  3  1    -6.6814437395e-01
 1  3  2     8.9817716967e-01
 1  3  3    -5.9248780242e-01
 2  1  1     5.9751388456e-01
 2  1  2     5.8321732254e+00
 2  1  3     9.0414564052e-01
 2  2  1     5.6417433845e+00
 2  2  2    -4.5009225664e+00
 2  2  3    -6.2514116106e-01
 2  3  1     8.5981953766e-01
 2  3  2    -5.2470268789e-01
 2  3  3     9.3161036526e-02
 3  1  1    -6.6814437395e-01
 3  1  2     8.9817716967e-01
 3  1  3    -5.9248780242e-01
 3  2  1     8.5981953766e-01
 3  2  2    -5.2470268789e-01
 3  2  3     9.3161036526e-02
 3  3  1    -5.7447900250e-01
 3  3  2     5.9964516620e-02
 3  3  3     1.6807505713e-01

   11
0.0000000000e+00 0.0000000000e+00 0.0000000000e+00
-4.3884552644e+00 -2.8605996473e+00 1.0702738110e+01
     1      1      6
 1  1  1     2.9925595045e-02
 1  1  2     1.3707154542e-01
 1  1  3    -2.7203257209e-02
 1  2  1     7.7268756840e-02
 1  2  2     8.3881577982e-02
 1  2  3    -2.7296021031e-02
 1  3  1    -3.4121107903e-03
 1  3  2     1.0444395375e-02
 1  3  3     7.4117021807e-02
 2  1  1     7.7268756840e-02
 2  1  2     8.3881577982e-02
 2  1  3    -2.7296021031e-02
 2  2  1     7.7944675557e-02
 2  2  2     1.0179629948e-01
 2  2  3    -6.3030197837e-02
 2  3  1    -3.0479577760e-02
 2  3  2    -5.8189252986e-02
 2  3  3    -1.7547015120e-03
 3  1  1    -3.4121107903e-03
 3  1  2     1.0444395375e-02
 3  1  3     7.4117021807e-02
 3  2  1    -3.0479577760e-02
 3  2  2    -5.8189252986e-02
 3  2  3    -1.7547015120e-03
 3  3  1     3.9275428696e-01
 3  3  2    -7.4624704818e-02
 3  3  3     4.3166338276e-02

   12
0.0000000000e+00 0.0000000000e+00 0.0000000000e+00
0.0000000000e+00 0.0000000000e+00 0.0000000000e+00
     1      2      1
 1  1  1     3.3667947545e-02
 1  1  2     1.5144205017e-02
 1  1  3     1.4539161938e-01
 1  2  1     4.2118074015e-02
 1  2  2    -8.3242350366e-02
 1  2  3     8.3869016098e-02
 1  3  1     7.4301332205e-02
 1  3  2     1.1711690403e-01
 1  3  3    -1.4124161551e-02
 2  1  1     1.5144205017e-02
 2  1  2     7.6813838319e-02
 2  1  3     1.7652779731e-01
 2  2  1    -8.3242350366e-02
 2  2  2     3.3504139004e-03
 2  2  3     2.0003005152e-01
 2  3  1     1.1711690403e-01
 2  3  2     6.9321601230e-02
 2  3  3    -3.4391745606e-02
 3  1  1     1.4539161938e-01
 3  1  2     1.7652779731e-01
 3  1  3    -2.9054841742e-01
 3  2  1     8.3869016098e-02
 3  2  2     2.0003005152e-01
 3  2  3    -8.6329527985e-03
 3  3  1    -1.4124161551e-02
 3  3  2    -3.4391745606e-02
 3  3  3     1.3430644873e-02

   13
0.0000000000e+00 0.0000000000e+00 0.0000000000e+00
0.0000000000e+00 0.0000000000e+00 0.0000000000e+00
     1      2      2
 1  1  1    -3.6303578888e-02
 1  1  2     4.9048417550e-02
 1  1  3    -3.2310623724e-02
 1  2  1     4.9048417550e-02
 1  2  2     6.1518380081e-03
 1  2  3    -6.7091231971e-02
 1  3  1    -3.2310623724e-02
 1  3  2    -6.7091231971e-02
 1  3  3     6.3926756903e-02
 2  1  1     6.6170222685e-03
 2  1  2     7.1284357042e-02
 2  1  3     8.3023450166e-03
 2  2  1     7.1284357042e-02
 2  2  2     1.1280728901e-03
 2  2  3    -1.4200783315e-01
 2  3  1     8.3023450166e-03
 2  3  2    -1.4200783315e-01
 2  3  3     9.5073673418e-02
 3  1  1    -5.0236247614e-02
 3  1  2    -1.3145926042e-01
 3  1  3     1.5441247302e-01
 3  2  1    -1.3145926042e-01
 3  2  2    -5.3831628374e-02
 3  2  3     1.9635106209e-02
 3  3  1     1.5441247302e-01
 3  3  2     1.9635106209e-02
 3  3  3     1.4383873078e-01

   14
0.0000000000e+00 0.0000000000e+00 0.0000000000e+00
0.0000000000e+00 0.0000000000e+00 0.0000000000e+00
     1      2      8
 1  1  1    -2.0967380543e-02
 1  1  2     2.2006479522e-02
 1  1  3    -1.5509925467e-02
 1  2  1     3.1191027168e-02
 1  2  2     1.4072128978e-02
 1  2  3     2.1502812431e-03
 1  3  1    -3.2661365147e-02
 1  3  2    -1.5252098427e-02
 1  3  3    -5.0913761771e-02
 2  1  1    -3.2390681780e-02
 2  1  2    -2.7046921725e-02
 2  1  3    -5.0522615794e-02
 2  2  1     2.4726474651e-03
 2  2  2    -9.7711083072e-03
 2  2  3    -2.0784481248e-02
 2  3  1    -3.7941730093e-02
 2  3  2    -1.5171814233e-02
 2  3  3    -1.9168276692e-02
 3  1  1     5.3014945571e-02
 3  1  2    -2.7371343255e-02
 3  1  3     2.2753912957e-01
 3  2  1     1.9407344803e-01
 3  2  2    -3.4638453203e-02
 3  2  3    -2.6117603248e-02
 3  3  1    -1.6485515522e-01
 3  3  2     2.5880173058e-03
 3  3  3     1.9553757262e-02

   15
0.0000000000e+00 0.0000000000e+00 0.0000000000e+00
4.3884552625e+00 -1.5927333000e-09 -1.2948540000e-09
     1      2      1
 1  1  1     1.0017169202e-10
 1  1  2     6.7157932124e-03
 1  1  3    -8.1425214033e-02
 1  2  1     1.7361196436e-02
 1  2  2     3.4622229418e-02
 1  2  3    -7.8865036910e-03
 1  3  1     9.9916414583e-03
 1  3  2     1.2782246563e-02
 1  3  3    -7.0793077334e-04
 2  1  1     6.7157941281e-03
 2  1  2    -9.8309858247e-12
 2  1  3     1.5233357096e-03
 2  2  1    -3.4622229432e-02
 2  2  2     1.3629688248e-03
 2  2  3    -3.5912739733e-03
 2  3  1    -1.2782246556e-02
 2  3  2    -4.7387580792e-04
 2  3  3    -1.7248929426e-03
 3  1  1    -8.1425214128e-02
 3  1  2    -1.5233355954e-03
 3  1  3    -7.2531810845e-11
 3  2  1     7.8865037479e-03
 3  2  2    -3.5912739983e-03
 3  2  3     1.0211065954e-02
 3  3  1     7.0793074626e-04
 3  3  2    -1.7248929498e-03
 3  3  3     2.2335282612e-02

   16
0.0000000000e+00 0.0000000000e+00 0.0000000000e+00
-4.3884552625e+00 1.5927333000e-09 1.2948540000e-09
     1      2      2
 1  1  1     6.8329619925e-10
 1  1  2    -6.2754612442e-02
 1  1  3     2.5183903310e-02
 1  2  1    -6.2754612663e-02
 1  2  2     1.3350681621e-12
 1  2  3    -2.3491786923e-03
 1  3  1     2.5183899554e-02
 1  3  2     2.3491786710e-03
 1  3  3     1.4558022451e-10
 2  1  1     2.7403104885e-02
 2  1  2    -7.2868016539e-02
 2  1  3    -2.3890245632e-02
 2  2  1     7.2868016525e-02
 2  2  2     4.4029502777e-03
 2  2  3    -8.5984135395e-03
 2  3  1     2.3890245779e-02
 2  3  2    -8.5984135156e-03
 2  3  3    -1.3104230272e-02
 3  1  1    -3.9318583770e-02
 3  1  2     1.7745899880e-02
 3  1  3    -1.9460723092e-04
 3  2  1    -1.7745899910e-02
 3  2  2     5.9380863076e-03
 3  2  3     2.5067344890e-03
 3  3  1     1.9460733528e-04
 3  3  2     2.5067344770e-03
 3  3  3    -3.1367207676e-02

   17
0.0000000000e+00 0.0000000000e+00 0.0000000000e+00
-1.9393189000e-09 -2.8605996489e+00 1.0702738109e+01
     1      2      4
 1  1  1     2.3627619608e-02
 1  1  2    -3.0156772376e-02
 1  1  3    -4.1346803614e-02
 1  2  1    -7.6922396428e-02
 1  2  2     2.8393754083e-02
 1  2  3    -8.7096358733e-03
 1  3  1    -4.4507209751e-02
 1  3  2    -4.9915358026e-02
 1  3  3     1.8093495817e-03
 2  1  1    -2.3478276975e-02
 2  1  2    -4.8217439362e-02
 2  1  3    -1.1193379316e-01
 2  2  1    -2.8731677370e-02
 2  2  2    -5.0762198436e-04
 2  2  3    -2.4993421651e-02
 2  3  1    -9.8705450173e-02
 2  3  2     9.6943754998e-02
 2  3  3    -2.6678253745e-02
 3  1  1    -2.7453179904e-02
 3  1  2    -3.3946483673e-02
 3  1  3    -9.1208785111e-02
 3  2  1    -1.3660053755e-01
 3  2  2    -1.1385752682e-01
 3  2  3     2.4712315435e-03
 3  3  1     2.3666469287e-02
 3  3  2     1.1427624223e-02
 3  3  3    -1.6774918701e-01

   18
0.0000000000e+00 0.0000000000e+00 0.0000000000e+00
0.0000000000e+00 0.0000000000e+00 0.0000000000e+00
     1      8      1
 1  1  1    -3.2126044711e-09
 1  1  2     1.8638226390e-01
 1  1  3    -1.3833153881e-01
 1  2  1     2.0467668377e-01
 1  2  2     5.2443067126e-11
 1  2  3     5.6450047985e-11
 1  3  1    -1.7257875033e-01
 1  3  2    -1.1812003665e-10
 1  3  3    -3.6754488713e-10
 2  1  1     1.8638226390e-01
 2  1  2     3.5402375862e-11
 2  1  3    -4.0381365145e-11
 2  2  1     5.2443067126e-11
 2  2  2    -2.8284269131e-02
 2  2  3     4.4911070613e-03
 2  3  1    -1.1812003665e-10
 2  3  2     1.5674563182e-02
 2  3  3     6.2318809061e-03
 3  1  1    -1.3833153881e-01
 3  1  2    -4.0381365145e-11
 3  1  3     3.6236307893e-11
 3  2  1     5.6450047985e-11
 3  2  2     4.4911070613e-03
 3  2  3    -5.1235740376e-02
 3  3  1    -3.6754488713e-10
 3  3  2     6.2318809061e-03
 3  3  3     1.9675678943e-01

   19
0.0000000000e+00 0.0000000000e+00 0.0000000000e+00
0.0000000000e+00 0.0000000000e+00 0.0000000000e+00
     1      8      2
 1  1  1    -2.0967380543e-02
 1  1  2     3.1191027168e-02
 1  1  3    -3.2661365147e-02
 1  2  1     2.2006479522e-02
 1  2  2     1.4072128978e-02
 1  2  3    -1.5252098427e-02
 1  3  1    -1.5509925467e-02
 1  3  2     2.1502812431e-03
 1  3  3    -5.0913761771e-02
 2  1  1    -3.2390681780e-02
 2  1  2     2.4726474651e-03
 2  1  3    -3.7941730093e-02
 2  2  1    -2.7046921725e-02
 2  2  2    -9.7711083072e-03
 2  2  3    -1.5171814233e-02
 2  3  1    -5.0522615794e-02
 2  3  2    -2.0784481248e-02
 2  3  3    -1.9168276692e-02
 3  1  1     5.3014945571e-02
 3  1  2     1.9407344803e-01
 3  1  3    -1.6485515522e-01
 3  2  1    -2.7371343255e-02
 3  2  2    -3.4638453203e-02
 3  2  3     2.5880173058e-03
 3  3  1     2.2753912957e-01
 3  3  2    -2.6117603248e-02
 3  3  3     1.9553757262e-02

   20
0.0000000000e+00 0.0000000000e+00 0.0000000000e+00
0.0000000000e+00 0.0000000000e+00 0.0000000000e+00
     1      8      8
 1  1  1     3.5325864954e-09
 1  1  2    -2.4866841137e-01
 1  1  3     2.0352718936e-01
 1  2  1    -2.4866841137e-01
 1  2  2    -2.9979746196e-10
 1  2  3    -2.8398694127e-10
 1  3  1     2.0352718936e-01
 1  3  2    -2.8398694127e-10
 1  3  3     1.4556349492e-10
 2  1  1    -1.2163335131e-01
 2  1  2    -2.8287056779e-10
 2  1  3    -2.9286762499e-10
 2  2  1    -2.8287056779e-10
 2  2  2     4.7747653757e-02
 2  2  3     2.5898902404e-02
 2  3  1    -2.9286762499e-10
 2  3  2     2.5898902404e-02
 2  3  3     3.2078465946e-02
 3  1  1     3.2270160263e-02
 3  1  2    -5.0179048534e-10
 3  1  3     9.5548373247e-11
 3  2  1    -5.0179048534e-10
 3  2  2     6.4770901901e-02
 3  2  3     4.6039174825e-02
 3  3  1     9.5548373247e-11
 3  3  2     4.6039174825e-02
 3  3  3    -2.3583321278e-01

   21
0.0000000000e+00 0.0000000000e+00 0.0000000000e+00
-4.3884552625e+00 1.5927333000e-09 1.2948540000e-09
     1      8      2
 1  1  1     2.0967380223e-02
 1  1  2     3.1191028218e-02
 1  1  3    -3.2661366834e-02
 1  2  1     2.2006479141e-02
 1  2  2    -1.4072128730e-02
 1  2  3     1.5252098645e-02
 1  3  1    -1.5509925432e-02
 1  3  2    -2.1502808409e-03
 1  3  3     5.0913761994e-02
 2  1  1    -3.2390682522e-02
 2  1  2    -2.4726472359e-03
 2  1  3     3.7941730435e-02
 2  2  1     2.7046921937e-02
 2  2  2    -9.7711083148e-03
 2  2  3    -1.5171814288e-02
 2  3  1     5.0522616205e-02
 2  3  2    -2.0784481281e-02
 2  3  3    -1.9168276781e-02
 3  1  1     5.3014948224e-02
 3  1  2    -1.9407344748e-01
 3  1  3     1.6485515508e-01
 3  2  1     2.7371343691e-02
 3  2  2    -3.4638453074e-02
 3  2  3     2.5880171609e-03
 3  3  1    -2.2753912930e-01
 3  3  2    -2.6117602967e-02
 3  3  3     1.9553757269e-02

   22
4.3884552625e+00 -1.5927333000e-09 -1.2948540000e-09
0.0000000000e+00 0.0000000000e+00 0.0000000000e+00
     1      1      1
 1  1  1    -1.1747499979e-01
 1  1  2    -8.1294952293e-03
 1  1  3    -1.1310951118e-02
 1  2  1    -1.5321480637e-02
 1  2  2     7.2322746072e-02
 1  2  3    -6.7613898766e-03
 1  3  1     2.9369733001e-02
 1  3  2    -5.7666260355e-03
 1  3  3     7.6252111034e-03
 2  1  1    -8.1294952293e-03
 2  1  2     1.0104209826e-01
 2  1  3    -1.3664858107e-02
 2  2  1     7.2322746072e-02
 2  2  2    -6.6135421193e-03
 2  2  3     3.3224347580e-03
 2  3  1    -5.7666260355e-03
 2  3  2     2.3877082590e-02
 2  3  3    -1.6274277445e-03
 3  1  1    -1.1310951118e-02
 3  1  2    -1.3664858107e-02
 3  1  3     7.4930976651e-03
 3  2  1    -6.7613898766e-03
 3  2  2     3.3224347580e-03
 3  2  3    -5.0079333463e-05
 3  3  1     7.6252111034e-03
 3  3  2    -1.6274277445e-03
 3  3  3    -1.8416071060e-02

   23
4.3884552625e+00 -1.5927333000e-09 -1.2948540000e-09
0.0000000000e+00 0.0000000000e+00 0.0000000000e+00
     1      1      2
 1  1  1     1.0017169202e-10
 1  1  2     1.7361196436e-02
 1  1  3     9.9916414583e-03
 1  2  1     6.7157932124e-03
 1  2  2     3.4622229418e-02
 1  2  3     1.2782246563e-02
 1  3  1    -8.1425214033e-02
 1  3  2    -7.8865036910e-03
 1  3  3    -7.0793077334e-04
 2  1  1     6.7157941281e-03
 2  1  2    -3.4622229432e-02
 2  1  3    -1.2782246556e-02
 2  2  1    -9.8309858247e-12
 2  2  2     1.3629688248e-03
 2  2  3    -4.7387580792e-04
 2  3  1     1.5233357096e-03
 2  3  2    -3.5912739733e-03
 2  3  3    -1.7248929426e-03
 3  1  1    -8.1425214128e-02
 3  1  2     7.8865037479e-03
 3  1  3     7.0793074626e-04
 3  2  1    -1.5233355954e-03
 3  2  2    -3.5912739983e-03
 3  2  3    -1.7248929498e-03
 3  3  1    -7.2531810845e-11
 3  3  2     1.0211065954e-02
 3  3  3     2.2335282612e-02

   24
4.3884552625e+00 -1.5927333000e-09 -1.2948540000e-09
4.3884552625e+00 -1.5927333000e-09 -1.2948540000e-09
     1      1      1
 1  1  1     1.1747500021e-01
 1  1  2    -8.1294928993e-03
 1  1  3    -1.1310951418e-02
 1  2  1    -8.1294928993e-03
 1  2  2    -1.0104209825e-01
 1  2  3     1.3664858079e-02
 1  3  1    -1.1310951418e-02
 1  3  2     1.3664858079e-02
 1  3  3    -7.4930975735e-03
 2  1  1    -1.5321478695e-02
 2  1  2    -7.2322745973e-02
 2  1  3     6.7613898462e-03
 2  2  1    -7.2322745973e-02
 2  2  2    -6.6135419409e-03
 2  2  3     3.3224347859e-03
 2  3  1     6.7613898462e-03
 2  3  2     3.3224347859e-03
 2  3  3    -5.0079336004e-05
 3  1  1     2.9369732829e-02
 3  1  2     5.7666256819e-03
 3  1  3    -7.6252110130e-03
 3  2  1     5.7666256819e-03
 3  2  2     2.3877082641e-02
 3  2  3    -1.6274277504e-03
 3  3  1    -7.6252110130e-03
 3  3  2    -1.6274277504e-03
 3  3  3    -1.8416071046e-02

   25
4.3884552625e+00 -1.5927333000e-09 -1.2948540000e-09
-1.9393189000e-09 -2.8605996489e+00 1.0702738109e+01
     1      1      4
 1  1  1    -5.9816448560e-10
 1  1  2     6.9291680321e-02
 1  1  3    -1.4548714368e-02
 1  2  1     1.4652576237e-02
 1  2  2     1.3330751627e-01
 1  2  3    -8.8988235864e-02
 1  3  1    -1.9299484414e-02
 1  3  2    -5.0128362595e-03
 1  3  3     3.8533798240e-03
 2  1  1     1.4652578953e-02
 2  1  2    -1.3330751629e-01
 2  1  3     8.8988235884e-02
 2  2  1    -2.8379426512e-11
 2  2  2     2.9471391693e-03
 2  2  3    -1.2186442786e-03
 2  3  1     5.4087501038e-03
 2  3  2    -1.2823558241e-02
 2  3  3    -3.5965339742e-04
 3  1  1    -1.9299484392e-02
 3  1  2     5.0128364395e-03
 3  1  3    -3.8533798866e-03
 3  2  1    -5.4087499122e-03
 3  2  2    -1.2823558320e-02
 3  2  3    -3.5965333892e-04
 3  3  1     5.3750200573e-12
 3  3  2    -5.2614881827e-03
 3  3  3     2.0847324175e-02

   26
4.3884552625e+00 -1.5927333000e-09 -1.2948540000e-09
-1.9393189000e-09 -2.8605996489e+00 1.0702738109e+01
     1      1      6
 1  1  1     7.1566286659e-11
 1  1  2    -7.0404252821e-02
 1  1  3     2.7092455264e-02
 1  2  1     2.0953903074e-03
 1  2  2    -1.3918065415e-01
 1  2  3     6.9263126869e-02
 1  3  1     8.2673824582e-02
 1  3  2     5.0099272141e-03
 1  3  3    -3.2551440587e-03
 2  1  1     2.0953868817e-03
 2  1  2     1.3918065414e-01
 2  1  3    -6.9263126845e-02
 2  2  1    -5.8978506728e-11
 2  2  2     8.8788054073e-03
 2  2  3    -4.9424413251e-03
 2  3  1    -7.9115657204e-03
 2  3  2    -1.0819401384e-02
 2  3  3     3.7394414403e-03
 3  1  1     8.2673824527e-02
 3  1  2    -5.0099270696e-03
 3  1  3     3.2551439671e-03
 3  2  1     7.9115657990e-03
 3  2  2    -1.0819401304e-02
 3  2  3     3.7394413924e-03
 3  3  1    -2.3025148520e-11
 3  3  2    -1.6996183312e-03
 3  3  3    -6.4199663704e-03

   27
-4.3884552625e+00 1.5927333000e-09 1.2948540000e-09
0.0000000000e+00 0.0000000000e+00 0.0000000000e+00
     1      1      1
 1  1  1     1.1747500021e-01
 1  1  2    -8.1294928993e-03
 1  1  3    -1.1310951418e-02
 1  2  1    -1.5321478695e-02
 1  2  2    -7.2322745973e-02
 1  2  3     6.7613898462e-03
 1  3  1     2.9369732829e-02
 1  3  2     5.7666256819e-03
 1  3  3    -7.6252110130e-03
 2  1  1    -8.1294928993e-03
 2  1  2    -1.0104209825e-01
 2  1  3     1.3664858079e-02
 2  2  1    -7.2322745973e-02
 2  2  2    -6.6135419409e-03
 2  2  3     3.3224347859e-03
 2  3  1     5.7666256819e-03
 2  3  2     2.3877082641e-02
 2  3  3    -1.6274277504e-03
 3  1  1    -1.1310951418e-02
 3  1  2     1.3664858079e-02
 3  1  3    -7.4930975735e-03
 3  2  1     6.7613898462e-03
 3  2  2     3.3224347859e-03
 3  2  3    -5.0079336004e-05
 3  3  1    -7.6252110130e-03
 3  3  2    -1.6274277504e-03
 3  3  3    -1.8416071046e-02

   28
-4.3884552625e+00 1.5927333000e-09 1.2948540000e-09
-4.3884552625e+00 1.5927333000e-09 1.2948540000e-09
     1      1      1
 1  1  1    -1.1747499979e-01
 1  1  2    -8.1294952293e-03
 1  1  3    -1.1310951118e-02
 1  2  1    -8.1294952293e-03
 1  2  2     1.0104209826e-01
 1  2  3    -1.3664858107e-02
 1  3  1    -1.1310951118e-02
 1  3  2    -1.3664858107e-02
 1  3  3     7.4930976651e-03
 2  1  1    -1.5321480637e-02
 2  1  2     7.2322746072e-02
 2  1  3    -6.7613898766e-03
 2  2  1     7.2322746072e-02
 2  2  2    -6.6135421193e-03
 2  2  3     3.3224347580e-03
 2  3  1    -6.7613898766e-03
 2  3  2     3.3224347580e-03
 2  3  3    -5.0079333463e-05
 3  1  1     2.9369733001e-02
 3  1  2    -5.7666260355e-03
 3  1  3     7.6252111034e-03
 3  2  1    -5.7666260355e-03
 3  2  2     2.3877082590e-02
 3  2  3    -1.6274277445e-03
 3  3  1     7.6252111034e-03
 3  3  2    -1.6274277445e-03
 3  3  3    -1.8416071060e-02

   29
-4.3884552625e+00 1.5927333000e-09 1.2948540000e-09
-4.3884552625e+00 1.5927333000e-09 1.2948540000e-09
     1      1      2
 1  1  1     1.0017168985e-10
 1  1  2     1.7361196436e-02
 1  1  3     9.9916414583e-03
 1  2  1     6.7157937585e-03
 1  2  2    -3.4622229440e-02
 1  2  3    -1.2782246560e-02
 1  3  1    -8.1425214128e-02
 1  3  2     7.8865037486e-03
 1  3  3     7.0793074626e-04
 2  1  1     6.7157935820e-03
 2  1  2     3.4622229410e-02
 2  1  3     1.2782246559e-02
 2  2  1    -1.7554973905e-11
 2  2  2     1.3629688248e-03
 2  2  3    -4.7387580792e-04
 2  3  1    -1.5233355954e-03
 2  3  2    -3.5912739983e-03
 2  3  3    -1.7248929498e-03
 3  1  1    -8.1425214033e-02
 3  1  2    -7.8865036903e-03
 3  1  3    -7.0793077334e-04
 3  2  1     1.5233357096e-03
 3  2  2    -3.5912739733e-03
 3  2  3    -1.7248929426e-03
 3  3  1    -7.2531811228e-11
 3  3  2     1.0211065954e-02
 3  3  3     2.2335282612e-02

   30
-4.3884552625e+00 1.5927333000e-09 1.2948540000e-09
-4.3884552644e+00 -2.8605996473e+00 1.0702738110e+01
     1      1      4
 1  1  1    -5.9816449053e-10
 1  1  2     6.9291680321e-02
 1  1  3    -1.4548714368e-02
 1  2  1     1.4652577759e-02
 1  2  2    -1.3330751632e-01
 1  2  3     8.8988235885e-02
 1  3  1    -1.9299484392e-02
 1  3  2     5.0128364395e-03
 1  3  3    -3.8533798866e-03
 2  1  1     1.4652577430e-02
 2  1  2     1.3330751624e-01
 2  1  3    -8.8988235863e-02
 2  2  1    -3.0210173780e-11
 2  2  2     2.9471391693e-03
 2  2  3    -1.2186442786e-03
 2  3  1    -5.4087499122e-03
 2  3  2    -1.2823558320e-02
 2  3  3    -3.5965333892e-04
 3  1  1    -1.9299484414e-02
 3  1  2    -5.0128362595e-03
 3  1  3     3.8533798240e-03
 3  2  1     5.4087501038e-03
 3  2  2    -1.2823558241e-02
 3  2  3    -3.5965339742e-04
 3  3  1     5.3750204027e-12
 3  3  2    -5.2614881827e-03
 3  3  3     2.0847324175e-02

   31
-4.3884552625e+00 1.5927333000e-09 1.2948540000e-09
-4.3884552644e+00 -2.8605996473e+00 1.0702738110e+01
     1      1      6
 1  1  1     7.1566290685e-11
 1  1  2    -7.0404252821e-02
 1  1  3     2.7092455264e-02
 1  2  1     2.0953886277e-03
 1  2  2     1.3918065412e-01
 1  2  3    -6.9263126834e-02
 1  3  1     8.2673824527e-02
 1  3  2    -5.0099270696e-03
 1  3  3     3.2551439671e-03
 2  1  1     2.0953885613e-03
 2  1  2    -1.3918065418e-01
 2  1  3     6.9263126880e-02
 2  2  1    -5.1136076606e-11
 2  2  2     8.8788054073e-03
 2  2  3    -4.9424413251e-03
 2  3  1     7.9115657993e-03
 2  3  2    -1.0819401304e-02
 2  3  3     3.7394413924e-03
 3  1  1     8.2673824582e-02
 3  1  2     5.0099272141e-03
 3  1  3    -3.2551440587e-03
 3  2  1    -7.9115657201e-03
 3  2  2    -1.0819401384e-02
 3  2  3     3.7394414403e-03
 3  3  1    -2.3025148468e-11
 3  3  2    -1.6996183312e-03
 3  3  3    -6.4199663704e-03

   32
-4.3884552625e+00 1.5927333000e-09 1.2948540000e-09
0.0000000000e+00 0.0000000000e+00 0.0000000000e+00
     1      2      1
 1  1  1    -3.3667950126e-02
 1  1  2     1.5144206186e-02
 1  1  3     1.4539162187e-01
 1  2  1     4.2118072348e-02
 1  2  2     8.3242349434e-02
 1  2  3    -8.3869019074e-02
 1  3  1     7.4301335480e-02
 1  3  2    -1.1711690494e-01
 1  3  3     1.4124161861e-02
 2  1  1     1.5144206186e-02
 2  1  2    -7.6813838681e-02
 2  1  3    -1.7652780016e-01
 2  2  1     8.3242349434e-02
 2  2  2     3.3504138354e-03
 2  2  3     2.0003005166e-01
 2  3  1    -1.1711690494e-01
 2  3  2     6.9321601446e-02
 2  3  3    -3.4391745443e-02
 3  1  1     1.4539162187e-01
 3  1  2    -1.7652780016e-01
 3  1  3     2.9054841732e-01
 3  2  1    -8.3869019074e-02