  96
   1   1
     5.208841499999910     -0.000145997817285      0.000029501625590 
    -0.000308679972819      5.831963734303694      0.224015184874133 
     0.000063964777871      0.223891998371561      5.233806098541963 
   1   2
    -0.210060499996395     -0.000236999863149     -0.011891999988250 
     0.000289629466451      0.354336026720083      0.027974538230701 
     0.011862570902834      0.027953792120726      0.005413484048144 
   1   3
    -0.210050000003595      0.000307000136854      0.011853000011737 
    -0.000239979636564      0.354325693241050      0.027938172564313 
    -0.011888117047046      0.027978460432080      0.005412045152946 
   1   4
    -0.000560999999743      0.000269999998899      0.000551499997885 
     0.000259305622440      0.000408180725921     -0.004237390887265 
     0.000553734494690     -0.004234192630431     -0.001955465163582 
   1   5
     0.000300499999824      0.000136999998658     -0.000414000001890 
    -0.000369536524120     -0.000552725309110     -0.003665486031369 
    -0.000141207951285     -0.003866854255418     -0.001895249614323 
   1   6
     0.000309499999925     -0.000372000001273     -0.000138500001960 
     0.000132482199955     -0.000533039380749     -0.003864368966239 
    -0.000418482953783     -0.003658195010730     -0.001888370576080 
   1   7
    -0.000966000000007     -0.000025999999456      0.000009999999509 
    -0.000023380910696     -0.000060332434047      0.001935935241770 
     0.000006172041631      0.001916410877759     -0.004045817709586 
   1   8
    -0.000192499999533     -0.000015999999476     -0.001535000000528 
     0.000047258123643      0.001442975249753     -0.000003669760594 
     0.001525950885142      0.000001651595354     -0.001785497558203 
   1   9
    -0.000178000000462      0.000044000000529      0.001523999999479 
    -0.000025782555179      0.001460913055855      0.000018178189471 
    -0.001535737489375     -0.000003387508843     -0.001786386261372 
   1  10
    -0.000078000000005     -0.000002500000609     -0.000010000000113 
    -0.000013819648301     -0.001685178302140      0.000012884915354 
    -0.000000070820451      0.000009693044724     -0.000400246129667 
   1  11
     0.000020999999994      0.000008499999423      0.000009999999917 
    -0.000008461816004     -0.001666445592199      0.000005169165902 
    -0.000011060023157      0.000095437869274     -0.000287929548347 
   1  12
     0.000016000000010     -0.000004500000600     -0.000001500000050 
     0.000020667189657     -0.001656468886970      0.000088802702113 
     0.000007076525767      0.000002874986552     -0.000278514978375 
   1  13
     0.027879500092443     -0.039149999940564      0.153903000070708 
    -0.013631315710826     -0.087842376930447      0.071649135368335 
     0.330070081734619      0.309487283206223      0.151507196509694 
   1  14
    -0.045842999999678      0.000177999985132      0.000074500019022 
     0.000548354147147     -0.054186893607794      0.031420791013398 
     0.000417241948039      0.016264789645036      0.025818841368269 
   1  15
     0.027355999907233      0.038973500059635     -0.153973499929243 
     0.013082422009254     -0.087489178145820      0.071706587055204 
    -0.330491608301651      0.309726599611472      0.151602772433366 
   1  16
    -0.015748999977605      0.015269499983957      0.005502499995052 
     0.033722422280017     -0.024338561102721     -0.008735025013110 
     0.034419313561520     -0.024433121836882     -0.006024297344458 
   1  17
    -0.015489000022624     -0.014928000015764     -0.005415000004768 
    -0.035172652326003     -0.023173414066123     -0.008026026530239 
    -0.033412126611859     -0.024920803543388     -0.006286102790562 
   1  18
     0.032708500000227     -0.000340000028012     -0.000082500011681 
     0.001448169783344     -0.042696975774106     -0.020003798340345 
    -0.001010842918472     -0.042416878016836     -0.014981296618534 
   1  19
     0.001702500002847     -0.001842000000732     -0.002551000001919 
     0.001892950132890     -0.002506385892768     -0.000504631534015 
     0.007318987395673      0.000600688102074     -0.005884353436663 
   1  20
    -0.003858500000032     -0.000041000003051     -0.000013000003622 
    -0.000075685027285     -0.003110203360739     -0.003186657127104 
    -0.000014535831662     -0.006515552352894     -0.008355179361978 
   1  21
     0.001675999997183      0.001884499999297      0.002569499998029 
    -0.001819862720743     -0.002405961835443     -0.000557853507435 
    -0.007308768706588      0.000575774055142     -0.005995360548561 
   1  22
    -0.000157999999751      0.000079500001189     -0.000004499998992 
     0.000282617544772      0.002921107335317      0.003650097432627 
     0.000494753786311      0.000437609394393     -0.001074949630254 
   1  23
    -0.000201500000344     -0.000093999998828      0.000081000001313 
    -0.000569861700298      0.002936954784331      0.004240623212509 
    -0.000466464743631      0.000360071961107     -0.000767543143752 
   1  24
     0.000310000000094      0.000017000001008     -0.000070999998670 
     0.000284894295706      0.002542353405945      0.004468676011195 
    -0.000032539965789      0.000288762326735     -0.000987620121853 
   1  25
     0.008495499999899     -0.000055499996334     -0.000040999997344 
    -0.000143660706843      0.002906872999437      0.010161224277554 
    -0.000166232412794      0.008849188222341     -0.003495784857836 
   1  26
    -0.004195499999010      0.003077000002466      0.004709000003824 
    -0.002949020761437      0.002279926245643      0.006927045256959 
     0.006984378188177      0.005553539784060      0.004438163563397 
   1  27
    -0.004266000000891     -0.003018499997467     -0.004672499996163 
     0.003090626628450      0.002409570770794      0.006933634713694 
    -0.006822835397563      0.005620279007704      0.004474083156912 
   1  28
     0.000682500000759      0.000614499998096      0.000266999997568 
     0.000384556802379     -0.002950499676987     -0.004643593282107 
     0.002099496056230     -0.002822578198477     -0.002530865098262 
   1  29
    -0.000970000000020     -0.000095500001089     -0.000025500002432 
    -0.000224570326764     -0.002464002494632     -0.004810424604895 
     0.000208068982541     -0.000659089647436     -0.002324960529250 
   1  30
     0.000066499999259     -0.000516500001944     -0.000246000002492 
    -0.000162059866737     -0.002896878499882     -0.004849148899556 
    -0.002311224516835     -0.003025617997197     -0.002482295212088 
   1  31
    -0.415722000000031      0.000025499944797     -0.000007001029951 
    -0.000078816475964     -0.429178007257383      0.461693071528386 
    -0.000006056949123      0.340822482373516     -4.058559433248087 
   1  32
    -0.007201500001128     -0.009758000000135     -0.015060000013483 
     0.039170474780724      0.043908609397034     -0.011817611382849 
    -0.052005782864144     -0.054467308387471     -0.031158620282258 
   1  33
    -0.007145999998845      0.009734999999846      0.015064499986501 
    -0.039096603516753      0.043895484005469     -0.011886845430110 
     0.052005860030845     -0.054515325911621     -0.031129510255471 
   1  34
    -0.004186499997111     -0.004776999996372     -0.001365999996403 
     0.006633877518171      0.003850538716942      0.006770432030146 
     0.001632828918484      0.007559623531496      0.003861673949137 
   1  35
    -0.002495000002871      0.004934500004175      0.001661000004419 
    -0.005329909468878      0.005801339976431      0.007412644159987 
    -0.003172852289813      0.007014872977775      0.005858725978876 
   1  36
     0.009548499999978     -0.000153999989865     -0.000298999997524 
    -0.001308493948765      0.017641682618017      0.004101136502198 
     0.001535708393853      0.012647212934141      0.003345936249936 
   1  37
     0.000599500000650      0.000249999998962      0.001913500000519 
     0.000235224973598     -0.002937707055326      0.000098473645497 
     0.001913633585558      0.000097242279932      0.001638491924265 
   1  38
    -0.000998499999971      0.000037999999314      0.000049000000453 
     0.000041090748693     -0.002177063616325      0.000356607695524 
     0.000046693663219      0.000352300179722      0.001095739733985 
   1  39
     0.000577499999320     -0.000285000001034     -0.001960499999492 
    -0.000277198858921     -0.002885094529761      0.000046237444850 
    -0.001963668598684      0.000043505203176      0.001664899367043 
   1  40
    -0.000076999999978     -0.000009999999178      0.000092500000016 
    -0.000017904194698      0.001949276576406      0.000401499506381 
     0.000098207312970      0.000386951734568     -0.000438187288252 
   1  41
    -0.000114500000039     -0.000009999999219     -0.000122999999973 
    -0.000008191214981      0.001882783839720      0.000336273457054 
    -0.000121226114149      0.000330363387223     -0.000323127614643 
   1  42
    -0.000066499999985      0.000023000000724      0.000032499999785 
     0.000026439152998      0.001805353612425      0.000237558883354 
     0.000020005368435      0.000232552903620     -0.001020258207339 
   1  43
    -2.087403500902331     -2.071187501173991     -0.510644000338071 
    -2.071022405177823     -2.837130736977068     -0.488976289694860 
    -0.510652081638794     -0.488993554286871     -0.544302175487451 
   1  44
    -0.062676000000009      0.000007999933990     -0.000028500010080 
     0.000000438040097     -0.154678371355374     -0.033441006795646 
    -0.000030418456971     -0.033452993925607      0.006970466150888 
   1  45
    -2.087302499097532      2.071160498825969      0.510667999661904 
     2.071314654930216     -2.837223102948280     -0.488993308897723 
     0.510761763252664     -0.489021346177285     -0.544368312748992 
   1  46
    -0.001212499999157      0.002925000000625     -0.000726999996127 
     0.002923132010390     -0.001938177970798      0.004508359513824 
    -0.000738243449895      0.004502733585431      0.007581731420417 
   1  47
    -0.001059500000859     -0.002957999999160      0.000729500003548 
    -0.002958923494462     -0.000931582508987      0.003991705272884 
     0.000728159644650      0.003994411788622      0.007113443737880 
   1  48
     0.001846000000013      0.000031499997892     -0.000000499994608 
     0.000030141656353     -0.009535202599801      0.004584308286672 
     0.000006503529093      0.004585382612374      0.012635216725969 
   1  49
    -0.038426999999971      0.000316500005757      0.000039500001022 
     0.000033570950766      0.033575545732883     -0.000025507984007 
     0.000055552360930     -0.021787710294968      0.003496486712298 
   1  50
     0.022202499991054      0.003124000013434      0.005886999987619 
    -0.022381889890978      0.027361530950172      0.028917754290389 
    -0.002787846246241      0.011874297094466     -0.077530261716603 
   1  51
     0.022154000008915     -0.003438499987033     -0.005926500012487 
     0.022344817717990      0.026477058293335      0.028754192204565 
     0.002727217678923      0.011380157048332     -0.077690944744954 
   1  52
     0.000184499994294     -0.017166499977221     -0.004496999995303 
    -0.008240709496273      0.033841917202761      0.004642078692566 
    -0.009200365593570      0.035574338064449      0.010207815541617 
   1  53
     0.000549500000172     -0.000101500004347     -0.000062500001641 
     0.000514432989411     -0.007973098443280     -0.002882353716931 
    -0.000048822156009     -0.004926840608188     -0.002017168872898 
   1  54
    -0.000278999994468      0.017271000022879      0.004561000004675 
     0.007727078366807      0.034418960153651      0.004772401849488 
     0.009244744107416      0.035202218968151      0.009974038873998 
   1  55
    -0.001595000000001      0.000018000001303      0.000002500000506 
     0.000000306836790      0.002438211077414      0.000678333721868 
    -0.000004575951021      0.001416619383322      0.000879479888143 
   1  56
     0.000948999998924     -0.000112999999270      0.000170500000655 
    -0.000420967140161      0.001960885094503      0.000276909711430 
    -0.003127768577377      0.000062962037958      0.001880783116055 
   1  57
     0.000978000001075      0.000098000000722     -0.000173499999340 
     0.000418257981491      0.001953731251658      0.000276709923199 
     0.003128597134687      0.000045005888939      0.001896256254655 
   1  58
    -0.000036500000147     -0.000181500000676     -0.000049000000321 
    -0.000192730697241     -0.001618392746235     -0.001256291804657 
    -0.000262673463551     -0.000300584181083      0.000456592601244 
   1  59
     0.000074000000035      0.000032499999151     -0.000011000000421 
     0.000117264207672     -0.001845593670137     -0.001182858795773 
    -0.000026106120332     -0.000607146689797      0.000028537750182 
   1  60
    -0.000055499999889      0.000151999999373      0.000059499999667 
     0.000073831431240     -0.001510200304350     -0.001226980357655 
     0.000285237262290     -0.000268043931394      0.000380066033669 
   1  61
    -0.001426000000202      0.000352999998260      0.000422499999139 
     0.000761298145096     -0.000516678770763     -0.002338071660328 
    -0.001621925500246     -0.005262371478446     -0.000043703579375 
   1  62
     0.002623999999987      0.000039499999237     -0.000007500000918 
     0.000003909448387     -0.001781481403786     -0.001937327702029 
    -0.000050192666322     -0.000393341456690     -0.000727412101670 
   1  63
    -0.001360999999786     -0.000391500001705     -0.000413500000830 
    -0.000767121109156     -0.000443712652248     -0.002319593671495 
     0.001667466317101     -0.005232000710355      0.000039385407579 
   1  64
     0.000085999999817      0.000071500000905      0.000111000000774 
     0.000009271393709      0.001795228039902      0.001391119621511 
    -0.000629969595207      0.000859188888681      0.000911620742968 
   1  65
     0.000177500000200      0.000083000000837      0.000016500000777 
     0.000065045570840      0.001483772642593      0.001364080597888 
     0.000599112815163      0.001012982383545      0.000956148949057 
   1  66
    -0.000267500000019     -0.000152999999236     -0.000125999999371 
    -0.000075797827119      0.001586628866495      0.001192947480824 
     0.000027355671490      0.000636265996934      0.000663536993496 
   1  67
    -0.074306499985866      0.107336999960818     -0.104298999941618 
     0.043955353245966     -0.125982185513292      0.066781844382874 
    -0.006164695337397      0.022173145987083      0.115719769680161 
   1  68
     0.006061000000017      0.000070999997513      0.000000500002237 
     0.000031229619745     -0.011825814028165      0.003593388850850 
     0.000018697996623      0.006117886408448      0.003161576977623 
   1  69
    -0.074282500014151     -0.107405500039133      0.104299000058384 
    -0.043983188292227     -0.125872558214216      0.066799819486880 
     0.006143281748850      0.022201929292642      0.115702319352607 
   1  70
     0.000824499999676      0.000023500001446     -0.000554999999796 
    -0.000884837922591      0.002936837926275      0.000668585238609 
    -0.000008774598481      0.001288527672186     -0.000131833049384 
   1  71
    -0.003865000002353     -0.011098000005128     -0.003837000001648 
    -0.006207186791692     -0.011072089925884     -0.003711009746389 
    -0.000340837498917     -0.003758418163432     -0.001021369331601 
   1  72
    -0.004007999997325      0.011075999994837      0.004393499998915 
     0.007088305377700     -0.011851495206516     -0.002885172936742 
     0.000346030245380     -0.002920764471154     -0.000129377870273 
   1  73
    -0.000813000000389     -0.000580999999418     -0.011557500006450 
    -0.000001050401482     -0.000437171090410     -0.009932705926627 
    -0.001318483785379      0.002511796867045     -0.009641211817073 
   1  74
     0.000957999999980     -0.000052000001007     -0.000005500002934 
    -0.000048648055929      0.000488868933865     -0.004693977606235 
    -0.000008862114059     -0.004013369267122     -0.004170995270122 
   1  75
    -0.000850999999592      0.000634500000527      0.011564999993523 
     0.000048172056060     -0.000491800254006     -0.009991065050805 
     0.001324350170521      0.002392650375589     -0.009660432744625 
   1  76
     0.000047999999838     -0.000534499999171     -0.000330999999168 
    -0.000226081017118      0.001537195238448      0.001884044091278 
    -0.000271587249182      0.000919610373889      0.000502009688014 
   1  77
     0.000158000000186      0.000474000000858      0.000321500000878 
     0.000299748531322      0.001650523668995      0.001990547982860 
     0.000260223833294      0.000876408220798      0.000528405562720 
   1  78
    -0.000327500000025      0.000061500001632      0.000011000001309 
    -0.000075286980368      0.002157592574544      0.002335523676047 
     0.000007825261709      0.002877708522505      0.001562553034315 
   1  79
     0.020495999982856      0.041395500003459     -0.037382500036728 
     0.012025136093904      0.040144613049434     -0.041865997847352 
    -0.072896005189601     -0.037657672688501     -0.072977172197128 
   1  80
     0.025654499999976     -0.000008499996355     -0.000013499995377 
    -0.000047125211997     -0.010577656849961      0.006025223114093 
    -0.000025016727906      0.025362813288348      0.008255763827301 
   1  81
     0.020513500017167     -0.041385499996533      0.037398499963273 
    -0.011979090123146      0.040174524052791     -0.041917811065185 
     0.072917110614073     -0.037665722258099     -0.072912352893781 
   1  82
     0.002353500000455      0.000147999998269      0.000643499997545 
     0.000017692947655     -0.001421203075570     -0.003327923702580 
     0.001520636539500     -0.004117610550160     -0.004227684250743 
   1  83
    -0.002831499997377     -0.000514000004076     -0.001260500003194 
     0.006234586037298     -0.005860195947076     -0.004595668065972 
     0.001219717002839     -0.006606211819825     -0.005170505935180 
   1  84
    -0.002354000003079      0.000367999996462      0.000618999996638 
    -0.006254093007279     -0.004502562910076     -0.004005632264433 
    -0.002743943697468     -0.006451920391985     -0.006468156838304 
   1  85
    -0.083533999999898      0.000014999946135     -0.000007500071294 
     0.000210302965849     -0.014493196266345      0.019145293007005 
     0.000087779833923     -0.164729149730569     -0.265176625188639 
   1  86
     0.015957000001934      0.004028499996870     -0.005620500004408 
     0.010524391492915     -0.002767713524144     -0.006432485109164 
    -0.006392234914935     -0.007204479857548     -0.007026745757333 
   1  87
     0.016147999997962     -0.004040000003096      0.005626499995618 
    -0.010739488482774     -0.002718471141164     -0.006404323595517 
     0.006301621083831     -0.007147844179503     -0.006975226963762 
   1  88
    -0.005540500005225      0.003028500005920      0.001418000003164 
    -0.008559856579647      0.009766984467195      0.006568347371241 
    -0.007180785447920      0.008050992633191      0.002644206081740 
   1  89
     0.009160500000032     -0.000304999987873     -0.000054499995021 
     0.000299906524480      0.018427470504314      0.009343802033552 
    -0.000261425598243      0.018431780776649      0.005380664814549 
   1  90
    -0.005486499994808     -0.002720499994352     -0.001364499996934 
     0.008257856605712      0.008051070498983      0.005582552902721 
     0.007438546206662      0.009239733299157      0.003525031348741 
   1  91
    -0.000117999999997     -0.000016499998789     -0.000004000006075 
    -0.000000105305876     -0.001523051992097      0.002424050901705 
     0.000010322879125      0.005977434909765     -0.023571434409371 
   1  92
     0.000548499999661      0.000807000001240      0.003296000002993 
    -0.000437948738510     -0.000066555153885      0.004260785498579 
    -0.000611832781202      0.004285649967282      0.004903996877178 
   1  93
     0.000445500000335     -0.000787999998760     -0.003293499997011 
     0.000435994025485     -0.000066917758938      0.004260722405704 
     0.000597853998304      0.004285553050869      0.004889488577654 
   1  94
     0.000008999999909      0.000086499999502      0.000107499999356 
    -0.000155861579749     -0.001587854403397     -0.002142480059815 
    -0.000115668101383      0.000264463173038      0.000452115050572 
   1  95
     0.000070500000030     -0.000060000000430     -0.000072500000605 
     0.000068165630481     -0.001507518539590     -0.002047547148541 
     0.000018736681419      0.000396173547568      0.000466619892721 
   1  96
    -0.000079499999941     -0.000023500000589     -0.000036000000720 
     0.000086259142628     -0.001752340895919     -0.002292238894269 
     0.000093442086563      0.000157875955193      0.000377929521186 
   2   1
    -0.210050000003595      0.000307000136854      0.011853000011737 
    -0.000239979636564      0.354325693241050      0.027938172564313 
    -0.011888117047046      0.027978460432080      0.005412045152946 
   2   2
     5.208841499999910     -0.000145997817285      0.000029501625590 
    -0.000308679972819      5.831963734303694      0.224015184874134 
     0.000063964777871      0.223891998371562      5.233806098541963 
   2   3
    -0.210060499996395     -0.000236999863149     -0.011891999988250 
     0.000289629466451      0.354336026720083      0.027974538230701 
     0.011862570902834      0.027953792120726      0.005413484048144 
   2   4
     0.000309499999925     -0.000372000001273     -0.000138500001960 
     0.000132482199955     -0.000533039380749     -0.003864368966239 
    -0.000418482953783     -0.003658195010730     -0.001888370576080 
   2   5
    -0.000560999999743      0.000269999998899      0.000551499997885 
     0.000259305622440      0.000408180725921     -0.004237390887265 
     0.000553734494690     -0.004234192630431     -0.001955465163582 
   2   6
     0.000300499999824      0.000136999998658     -0.000414000001890 
    -0.000369536524120     -0.000552725309110     -0.003665486031369 
    -0.000141207951285     -0.003866854255418     -0.001895249614323 
   2   7
    -0.000178000000462      0.000044000000529      0.001523999999479 
    -0.000025782555179      0.001460913055855      0.000018178189471 
    -0.001535737489375     -0.000003387508843     -0.001786386261372 
   2   8
    -0.000966000000007     -0.000025999999456      0.000009999999509 
    -0.000023380910696     -0.000060332434047      0.001935935241770 
     0.000006172041631      0.001916410877759     -0.004045817709586 
   2   9
    -0.000192499999533     -0.000015999999476     -0.001535000000528 
     0.000047258123643      0.001442975249753     -0.000003669760594 
     0.001525950885142      0.000001651595354     -0.001785497558203 
   2  10
     0.000016000000010     -0.000004500000600     -0.000001500000050 
     0.000020667189657     -0.001656468886970      0.000088802702113 
     0.000007076525767      0.000002874986552     -0.000278514978375 
   2  11
    -0.000078000000005     -0.000002500000609     -0.000010000000113 
    -0.000013819648301     -0.001685178302140      0.000012884915354 
    -0.000000070820451      0.000009693044724     -0.000400246129667 
   2  12
     0.000020999999994      0.000008499999423      0.000009999999917 
    -0.000008461816004     -0.001666445592199      0.000005169165902 
    -0.000011060023157      0.000095437869274     -0.000287929548347 
   2  13
     0.027355999907233      0.038973500059635     -0.153973499929243 
     0.013082422009254     -0.087489178145820      0.071706587055204 
    -0.330491608301651      0.309726599611472      0.151602772433366 
   2  14
     0.027879500092443     -0.039149999940564      0.153903000070708 
    -0.013631315710826     -0.087842376930447      0.071649135368335 
     0.330070081734619      0.309487283206223      0.151507196509694 
   2  15
    -0.045842999999678      0.000177999985132      0.000074500019022 
     0.000548354147147     -0.054186893607794      0.031420791013398 
     0.000417241948039      0.016264789645036      0.025818841368269 
   2  16
     0.032708500000227     -0.000340000028012     -0.000082500011681 
     0.001448169783344     -0.042696975774106     -0.020003798340345 
    -0.001010842918472     -0.042416878016836     -0.014981296618534 
   2  17
    -0.015748999977605      0.015269499983957      0.005502499995052 
     0.033722422280017     -0.024338561102721     -0.008735025013110 
     0.034419313561520     -0.024433121836882     -0.006024297344458 
   2  18
    -0.015489000022624     -0.014928000015764     -0.005415000004768 
    -0.035172652326003     -0.023173414066123     -0.008026026530239 
    -0.033412126611859     -0.024920803543388     -0.006286102790562 
   2  19
     0.001675999997183      0.001884499999297      0.002569499998029 
    -0.001819862720743     -0.002405961835443     -0.000557853507435 
    -0.007308768706588      0.000575774055142     -0.005995360548561 
   2  20
     0.001702500002847     -0.001842000000732     -0.002551000001919 
     0.001892950132890     -0.002506385892768     -0.000504631534015 
     0.007318987395673      0.000600688102074     -0.005884353436663 
   2  21
    -0.003858500000032     -0.000041000003051     -0.000013000003622 
    -0.000075685027285     -0.003110203360739     -0.003186657127104 
    -0.000014535831662     -0.006515552352894     -0.008355179361978 
   2  22
     0.000310000000094      0.000017000001008     -0.000070999998670 
     0.000284894295706      0.002542353405945      0.004468676011195 
    -0.000032539965789      0.000288762326735     -0.000987620121853 
   2  23
    -0.000157999999751      0.000079500001189     -0.000004499998992 
     0.000282617544772      0.002921107335317      0.003650097432627 
     0.000494753786311      0.000437609394393     -0.001074949630254 
   2  24
    -0.000201500000344     -0.000093999998828      0.000081000001313 
    -0.000569861700298      0.002936954784331      0.004240623212509 
    -0.000466464743631      0.000360071961107     -0.000767543143752 
   2  25
    -0.004266000000891     -0.003018499997467     -0.004672499996163 
     0.003090626628450      0.002409570770794      0.006933634713694 
    -0.006822835397563      0.005620279007704      0.004474083156912 
   2  26
     0.008495499999899     -0.000055499996334     -0.000040999997344 
    -0.000143660706843      0.002906872999437      0.010161224277554 
    -0.000166232412794      0.008849188222341     -0.003495784857836 
   2  27
    -0.004195499999010      0.003077000002466      0.004709000003824 
    -0.002949020761437      0.002279926245643      0.006927045256959 
     0.006984378188177      0.005553539784060      0.004438163563397 
   2  28
     0.000066499999259     -0.000516500001944     -0.000246000002492 
    -0.000162059866737     -0.002896878499882     -0.004849148899556 
    -0.002311224516835     -0.003025617997197     -0.002482295212088 
   2  29
     0.000682500000759      0.000614499998096      0.000266999997568 
     0.000384556802379     -0.002950499676987     -0.004643593282107 
     0.002099496056230     -0.002822578198477     -0.002530865098262 
   2  30
    -0.000970000000020     -0.000095500001089     -0.000025500002432 
    -0.000224570326764     -0.002464002494632     -0.004810424604895 
     0.000208068982541     -0.000659089647436     -0.002324960529250 
   2  31
    -0.007145999998845      0.009734999999846      0.015064499986501 
    -0.039096603516753      0.043895484005469     -0.011886845430110 
     0.052005860030845     -0.054515325911621     -0.031129510255471 
   2  32
    -0.415722000000031      0.000025499944797     -0.000007001029951 
    -0.000078816475964     -0.429178007257383      0.461693071528386 
    -0.000006056949123      0.340822482373516     -4.058559433248087 
   2  33
    -0.007201500001128     -0.009758000000135     -0.015060000013483 
     0.039170474780724      0.043908609397034     -0.011817611382849 
    -0.052005782864144     -0.054467308387471     -0.031158620282258 
   2  34
     0.009548499999978     -0.000153999989865     -0.000298999997524 
    -0.001308493948765      0.017641682618017      0.004101136502198 
     0.001535708393853      0.012647212934141      0.003345936249936 
   2  35
    -0.004186499997111     -0.004776999996372     -0.001365999996403 
     0.006633877518171      0.003850538716942      0.006770432030146 
     0.001632828918484      0.007559623531496      0.003861673949137 
   2  36
    -0.002495000002871      0.004934500004175      0.001661000004419 
    -0.005329909468878      0.005801339976431      0.007412644159987 
    -0.003172852289813      0.007014872977775      0.005858725978876 
   2  37
     0.000577499999320     -0.000285000001034     -0.001960499999492 
    -0.000277198858921     -0.002885094529761      0.000046237444850 
    -0.001963668598684      0.000043505203176      0.001664899367043 
   2  38
     0.000599500000650      0.000249999998962      0.001913500000519 
     0.000235224973598     -0.002937707055326      0.000098473645497 
     0.001913633585558      0.000097242279932      0.001638491924265 
   2  39
    -0.000998499999971      0.000037999999314      0.000049000000453 
     0.000041090748693     -0.002177063616325      0.000356607695524 
     0.000046693663219      0.000352300179722      0.001095739733985 
   2  40
    -0.000066499999985      0.000023000000724      0.000032499999785 
     0.000026439152998      0.001805353612425      0.000237558883354 
     0.000020005368435      0.000232552903620     -0.001020258207339 
   2  41
    -0.000076999999978     -0.000009999999178      0.000092500000016 
    -0.000017904194698      0.001949276576406      0.000401499506381 